 Gaussian 16, Revision A.03,
 Gaussian 16:  ES64L-G16RevA.03 25-Dec-2016

 ----------------------
 #n AM1 Opt Freq=Anharm
 ----------------------

 -----
 Title
 -----
 Symbolic Z-matrix:
 Charge =  0 Multiplicity = 1

 SCF Done:  E(RAM1) =  0.107959381965     A.U. after   14 cycles
 SCF Done:  E(RAM1) =  0.685845875920E-01 A.U. after   13 cycles
 SCF Done:  E(RAM1) =  0.654803363853E-01 A.U. after   14 cycles
 SCF Done:  E(RAM1) =  0.604475931090E-01 A.U. after   13 cycles
 SCF Done:  E(RAM1) =  0.600730590973E-01 A.U. after   10 cycles
 SCF Done:  E(RAM1) =  0.600708966666E-01 A.U. after    9 cycles
 Optimization completed.
    -- Stationary point found.
 Normal termination of Gaussian 16 at Sun Mar 14 13:58:35 2021.

 -------------------------------------------------------------
 #N Geom=AllCheck Guess=TCheck SCRF=Check GenChk RAM1/ZDO Freq
 -------------------------------------------------------------

 Structure from the checkpoint file:  "/home/user/opt/gaussian/newcalc/Gau-5350.chk"
 -----
 Title
 -----
 Charge =  0 Multiplicity = 1

                         Standard orientation:
 ---------------------------------------------------------------------
 Center     Atomic      Atomic             Coordinates (Angstroms)
 Number     Number       Type             X           Y           Z
 ---------------------------------------------------------------------
      1          8           0       -0.000000   -0.000000   -0.381883
      2          8           0        0.000000   -1.009158    0.190942
      3          8           0       -0.000000    1.009158    0.190942
 ---------------------------------------------------------------------

 SCF Done:  E(RAM1) =  0.600708966667E-01 A.U. after    2 cycles
 SCF Done:  E(RAM1) =  0.600767540058E-01 A.U. after    9 cycles
 SCF Done:  E(RAM1) =  0.600765406609E-01 A.U. after    9 cycles
 SCF Done:  E(RAM1) =  0.600903205244E-01 A.U. after   10 cycles
 SCF Done:  E(RAM1) =  0.600903205244E-01 A.U. after   10 cycles
 SCF Done:  E(RAM1) =  0.600903928993E-01 A.U. after    9 cycles
 SCF Done:  E(RAM1) =  0.600904231223E-01 A.U. after    9 cycles

 Alpha  occ. eigenvalues --   -1.73795  -1.48402  -1.12321  -0.82177  -0.78917
 Alpha  occ. eigenvalues --   -0.78861  -0.50557  -0.48408  -0.48109
 Alpha virt. eigenvalues --   -0.07049   0.08039   0.22022

 Mulliken charges:
               1
     1  O    0.555428
     2  O   -0.277714
     3  O   -0.277714
 Sum of Mulliken charges =   0.00000

 Dipole moment (field-independent basis, Debye):
    X=             -0.0000    Y=              0.0000    Z=             -1.1993  Tot=              1.1993
 N-N= 7.062886564293D+01 E-N=-6.676449551980D+01  KE=-5.794210998614D+01
  Exact polarizability:   1.297  -0.000  28.102  -0.000   0.000   3.726
 Approx polarizability:   0.961  -0.000  31.357  -0.000   0.000   3.268
 Calling FoFJK, ICntrl=    100127 FMM=F ISym2X=0 I1Cent= 0 IOpClX= 0 NMat=1 NMatS=1 NMatT=0.
 -------------------------------------------------------------------
 Center     Atomic                   Forces (Hartrees/Bohr)
 Number     Number              X              Y              Z
 -------------------------------------------------------------------
      1        8          -0.000000000    0.000000000   -0.004226973
      2        8           0.000000000   -0.004575534    0.002113486

                      1                      2                      3
                     A1                     B2                     A1
 Frequencies --    922.5269              1695.4681              1699.2784
 Red. masses --     15.9949                15.9949                15.9949
 Frc consts  --      8.0203                27.0901                27.2120
 IR Inten    --     39.2473               631.4203                 0.3434

 - Thermochemistry -
 -------------------
 Temperature   298.150 Kelvin.  Pressure   1.00000 Atm.
 Atom     1 has atomic number  8 and mass  15.99491

 Molecular mass:    47.98474 amu.
 Principal axes and moments of inertia in atomic units:
                           1         2         3
     Eigenvalues --    12.49488 116.33963 128.83451
           X            0.00000   0.00000   1.00000
           Y            1.00000   0.00000  -0.00000
           Z           -0.00000   1.00000  -0.00000
 This molecule is an asymmetric top.
 Rotational symmetry number  2.
 Rotational temperatures (Kelvin)      6.93195     0.74449     0.67229
 Rotational constants (GHZ):         144.43849    15.51269    14.00821
 Zero-point vibrational energy      25823.0 (Joules/Mol)
                                    6.17185 (Kcal/Mol)
 Vibrational temperatures:   1327.31  2439.40  2444.88
          (Kelvin)

 Zero-point correction=                           0.009835 (Hartree/Particle)
 Thermal correction to Energy=                    0.012722
 Thermal correction to Enthalpy=                  0.013666
 Thermal correction to Gibbs Free Energy=        -0.013015
 Sum of electronic and zero-point Energies=              0.069906
 Sum of electronic and thermal Energies=                 0.072793
 Sum of electronic and thermal Enthalpies=               0.073737
 Sum of electronic and thermal Free Energies=            0.047056

                     E (Thermal)             CV                S
                      KCal/Mol        Cal/Mol-Kelvin    Cal/Mol-Kelvin
 Total                    7.983              6.506             56.155
 Electronic               0.000              0.000              0.000
 Translational            0.889              2.981             37.529
 Rotational               0.889              2.981             18.488
 Vibrational              6.206              0.544              0.138

 ## DEPERTURBED TRANSITIONS MOMENTS ##

 Electric dipole : Fundamental Bands
 ------------------------------------------------------------------------

 ## AFTER VARIATIONAL CORRECTION

 Electric dipole : Fundamental Bands
 ------------------------------------------------------------------------

 Optimization completed.
    -- Stationary point found.
 Normal termination of Gaussian 16 at Sun Mar 14 13:58:41 2021.
